                         Program Version 5.0.4 -  RELEASE  -
|  1> ! energy freq PBE0 cc-pVDZ RIJCOSX DEF2-TZVP TIGHTOPT
|  2>
|  3> %pal
|  4> nprocs 16
|  5> end
|  6>
|  7> %maxcore 2000
|  8>
|  9> * xyzfile -1 1 porph_B1_B0_-1.xyz
| 10>
| 11>                          ****END OF INPUT****
 Total Charge           Charge          ....   -1
 Multiplicity           Mult            ....    1
 Number of Electrons    NEL             ....  188
FINAL SINGLE POINT ENERGY     -2601.330708090807
FINAL SINGLE POINT ENERGY     -2601.383124224772
FINAL SINGLE POINT ENERGY     -2601.406227070985
FINAL SINGLE POINT ENERGY     -2601.410506834652
FINAL SINGLE POINT ENERGY     -2601.411577069658
FINAL SINGLE POINT ENERGY     -2601.411970534866
FINAL SINGLE POINT ENERGY     -2601.412074322458
FINAL SINGLE POINT ENERGY     -2601.412380902545
FINAL SINGLE POINT ENERGY     -2601.411196522627
FINAL SINGLE POINT ENERGY     -2601.412233095418
FINAL SINGLE POINT ENERGY     -2601.421174616067
FINAL SINGLE POINT ENERGY     -2601.421192642086
FINAL SINGLE POINT ENERGY     -2601.421294302638
FINAL SINGLE POINT ENERGY     -2601.421263164646
FINAL SINGLE POINT ENERGY     -2601.421255612813
FINAL SINGLE POINT ENERGY     -2601.421262184123
FINAL SINGLE POINT ENERGY     -2601.421266649059
FINAL SINGLE POINT ENERGY     -2601.421270126035
FINAL SINGLE POINT ENERGY     -2601.421270503826
                    ***********************HURRAY********************

CARTESIAN COORDINATES (ANGSTROEM)
---------------------------------
  B     -4.475905    0.606290    0.157401
  B     -2.865861    1.150405   -0.105201
  C     -2.347755    2.525635   -0.416426
  C     -1.024516    2.869890   -0.404265
  C     -0.554638    4.236977   -0.381630
  C      0.756269    4.199424   -0.068113
  C      1.122538    2.808692    0.023348
  C      2.412226    2.394043    0.278846
  C      2.830562    1.073548    0.297329
  C      4.198068    0.657659    0.343166
  C     -4.230584   -0.843861    0.425523
  C     -2.851952   -1.103455    0.319160
  C     -2.389167   -2.416882    0.236047
  C     -1.085839   -2.805834    0.049626
  C     -0.676967   -4.165067   -0.182597
  C      0.661767   -4.141697   -0.380629
  C      1.084729   -2.778183   -0.226564
  C      2.403078   -2.383630   -0.211889
  C      2.833415   -1.080764   -0.010950
  C      4.201053   -0.684286    0.112509
  Cu    -0.055841    0.005644    0.032640
  H      5.042419    1.322167    0.462652
  H      3.159970    3.161948    0.439650
  H      1.443777    5.022232    0.074549
  H     -1.196612    5.096575   -0.512590
  H     -3.037416    3.349586   -0.581476
  H     -5.513393    1.215109    0.258657
  H     -4.899701   -1.681971    0.610354
  H     -3.140683   -3.196769    0.263489
  H     -1.351765   -5.008237   -0.222659
  H      1.330172   -4.970402   -0.569691
  H      3.157264   -3.146424   -0.366509
  H      5.045914   -1.357546    0.067708
  N      2.014540   -0.000864    0.120823
  N      0.039374    2.018104   -0.225398
  N     -2.037925    0.034074    0.270261
  N     -0.000611   -1.982129    0.022853

 Multiplicity           Mult            ....    1
 Number of Electrons    NEL             ....  188
 Basis Dimension        Dim             ....  861

ORBITAL ENERGIES
----------------

  NO   OCC          E(Eh)            E(eV)
   0   2.0000    -323.265365     -8796.4978
   1   2.0000     -38.871717     -1057.7532
   2   2.0000     -34.039044      -926.2495
   3   2.0000     -34.038778      -926.2422
   4   2.0000     -34.036411      -926.1778
   5   2.0000     -14.277705      -388.5161
   6   2.0000     -14.272867      -388.3844
   7   2.0000     -14.271445      -388.3458
   8   2.0000     -14.251760      -387.8101
   9   2.0000     -10.145005      -276.0596
  10   2.0000     -10.144552      -276.0473
  11   2.0000     -10.144217      -276.0382
  12   2.0000     -10.141029      -275.9514
  13   2.0000     -10.140800      -275.9452
  14   2.0000     -10.138183      -275.8740
  15   2.0000     -10.137259      -275.8488
  16   2.0000     -10.121171      -275.4111
  17   2.0000     -10.117779      -275.3188
  18   2.0000     -10.117712      -275.3169
  19   2.0000     -10.115753      -275.2636
  20   2.0000     -10.115264      -275.2503
  21   2.0000     -10.115074      -275.2452
  22   2.0000     -10.114856      -275.2392
  23   2.0000     -10.112790      -275.1830
  24   2.0000     -10.099091      -274.8102
  25   2.0000     -10.074484      -274.1407
  26   2.0000     -10.059231      -273.7256
  27   2.0000      -6.598134      -179.5444
  28   2.0000      -6.594500      -179.4455
  29   2.0000      -4.286970      -116.6544
  30   2.0000      -2.769415       -75.3596
  31   2.0000      -2.768714       -75.3405
  32   2.0000      -2.749841       -74.8270
  33   2.0000      -0.881592       -23.9893
  34   2.0000      -0.873393       -23.7662
  35   2.0000      -0.866005       -23.5652
  36   2.0000      -0.789166       -21.4743
  37   2.0000      -0.722099       -19.6493
  38   2.0000      -0.696614       -18.9558
  39   2.0000      -0.687804       -18.7161
  40   2.0000      -0.683838       -18.6082
  41   2.0000      -0.678830       -18.4719
  42   2.0000      -0.668998       -18.2044
  43   2.0000      -0.636116       -17.3096
  44   2.0000      -0.609212       -16.5775
  45   2.0000      -0.577316       -15.7096
  46   2.0000      -0.541748       -14.7417
  47   2.0000      -0.515052       -14.0153
  48   2.0000      -0.486784       -13.2461
  49   2.0000      -0.480081       -13.0637
  50   2.0000      -0.464460       -12.6386
  51   2.0000      -0.459347       -12.4995
  52   2.0000      -0.446975       -12.1628
  53   2.0000      -0.440535       -11.9876
  54   2.0000      -0.428699       -11.6655
  55   2.0000      -0.418407       -11.3854
  56   2.0000      -0.391384       -10.6501
  57   2.0000      -0.371654       -10.1132
  58   2.0000      -0.358644        -9.7592
  59   2.0000      -0.344921        -9.3858
  60   2.0000      -0.339964        -9.2509
  61   2.0000      -0.334374        -9.0988
  62   2.0000      -0.324690        -8.8353
  63   2.0000      -0.323535        -8.8038
  64   2.0000      -0.320341        -8.7169
  65   2.0000      -0.316964        -8.6250
  66   2.0000      -0.307283        -8.3616
  67   2.0000      -0.303731        -8.2650
  68   2.0000      -0.292874        -7.9695
  69   2.0000      -0.288665        -7.8550
  70   2.0000      -0.284478        -7.7410
  71   2.0000      -0.279962        -7.6181
  72   2.0000      -0.277723        -7.5572
  73   2.0000      -0.269900        -7.3443
  74   2.0000      -0.260795        -7.0966
  75   2.0000      -0.253279        -6.8921
  76   2.0000      -0.242819        -6.6074
  77   2.0000      -0.229385        -6.2419
  78   2.0000      -0.226111        -6.1528
  79   2.0000      -0.222142        -6.0448
  80   2.0000      -0.215175        -5.8552
  81   2.0000      -0.208194        -5.6652
  82   2.0000      -0.201103        -5.4723
  83   2.0000      -0.194265        -5.2862
  84   2.0000      -0.192882        -5.2486
  85   2.0000      -0.177631        -4.8336
  86   2.0000      -0.163672        -4.4537
  87   2.0000      -0.160994        -4.3809
  88   2.0000      -0.149090        -4.0569
  89   2.0000      -0.140900        -3.8341
  90   2.0000      -0.119711        -3.2575
  91   2.0000      -0.097777        -2.6606
  92   2.0000      -0.078503        -2.1362
  93   2.0000      -0.059868        -1.6291
  94   0.0000      -0.004494        -0.1223
  95   0.0000       0.038813         1.0562
  96   0.0000       0.051767         1.4086
  97   0.0000       0.108581         2.9547
  98   0.0000       0.139005         3.7825

MULLIKEN ATOMIC CHARGES
-----------------------
   0 B :   -0.205750
   1 B :    0.019567
   2 C :   -0.318714
   3 C :    0.227598
   4 C :   -0.193025
   5 C :   -0.240856
   6 C :    0.348078
   7 C :   -0.458426
   8 C :    0.291362
   9 C :   -0.214122
  10 C :   -0.310608
  11 C :    0.370003
  12 C :   -0.417640
  13 C :    0.308037
  14 C :   -0.239430
  15 C :   -0.217699
  16 C :    0.316418
  17 C :   -0.448174
  18 C :    0.324575
  19 C :   -0.260120
  20 Cu:   -0.323386
  21 H :    0.083706
  22 H :    0.084643
  23 H :    0.085005
  24 H :    0.093031
  25 H :    0.086691
  26 H :   -0.027412
  27 H :    0.057852
  28 H :    0.083612
  29 H :    0.088197
  30 H :    0.085313
  31 H :    0.083513
  32 H :    0.082242
  33 N :   -0.080426
  34 N :   -0.060675
  35 N :   -0.074999
  36 N :   -0.027980
Sum of atomic charges:   -1.0000000

LOEWDIN ATOMIC CHARGES
----------------------
   0 B :   -0.353777
   1 B :   -0.576449
   2 C :   -0.041560
   3 C :   -0.193045
   4 C :   -0.127229
   5 C :   -0.135581
   6 C :   -0.212495
   7 C :   -0.126508
   8 C :   -0.221671
   9 C :   -0.147240
  10 C :   -0.086816
  11 C :   -0.142318
  12 C :   -0.119262
  13 C :   -0.210651
  14 C :   -0.135031
  15 C :   -0.134563
  16 C :   -0.214985
  17 C :   -0.123880
  18 C :   -0.223364
  19 C :   -0.146817
  20 Cu:    0.141977
  21 H :    0.130716
  22 H :    0.150314
  23 H :    0.131861
  24 H :    0.133962
  25 H :    0.157572
  26 H :    0.060852
  27 H :    0.129383
  28 H :    0.152036
  29 H :    0.133329
  30 H :    0.132790
  31 H :    0.150595
  32 H :    0.130711
  33 N :    0.216730
  34 N :    0.216096
  35 N :    0.293859
  36 N :    0.210457

  Mayer bond orders larger than 0.100000
B(  0-B ,  1-B ) :   0.9390 B(  0-B , 10-C ) :   1.3251 B(  0-B , 26-H ) :   0.9543
B(  1-B ,  2-C ) :   1.1719 B(  1-B , 35-N ) :   1.2780 B(  2-C ,  3-C ) :   1.3830
B(  2-C , 25-H ) :   0.9975 B(  3-C ,  4-C ) :   1.0925 B(  3-C , 34-N ) :   1.2563
B(  4-C ,  5-C ) :   1.6507 B(  4-C , 24-H ) :   0.9873 B(  5-C ,  6-C ) :   1.0735
B(  5-C , 23-H ) :   0.9965 B(  6-C ,  7-C ) :   1.2937 B(  6-C , 34-N ) :   1.2515
B(  7-C ,  8-C ) :   1.2502 B(  7-C , 22-H ) :   1.0166 B(  8-C ,  9-C ) :   1.1327
B(  8-C , 33-N ) :   1.2790 B(  9-C , 19-C ) :   1.5634 B(  9-C , 21-H ) :   1.0021
B( 10-C , 11-C ) :   1.2333 B( 10-C , 27-H ) :   0.9709 B( 11-C , 12-C ) :   1.2837
B( 11-C , 35-N ) :   1.1579 B( 12-C , 13-C ) :   1.2906 B( 12-C , 28-H ) :   1.0005
B( 13-C , 14-C ) :   1.0862 B( 13-C , 36-N ) :   1.2717 B( 14-C , 15-C ) :   1.5994
B( 14-C , 29-H ) :   1.0066 B( 15-C , 16-C ) :   1.0981 B( 15-C , 30-H ) :   1.0061
B( 16-C , 17-C ) :   1.3013 B( 16-C , 36-N ) :   1.2308 B( 17-C , 18-C ) :   1.2348
B( 17-C , 31-H ) :   1.0227 B( 18-C , 19-C ) :   1.1283 B( 18-C , 33-N ) :   1.2662
B( 19-C , 32-H ) :   1.0069 B( 20-Cu, 33-N ) :   0.5694 B( 20-Cu, 34-N ) :   0.6523
B( 20-Cu, 35-N ) :   0.7010 B( 20-Cu, 36-N ) :   0.6895

FINAL SINGLE POINT ENERGY     -2601.421270526370

DIPOLE MOMENT
-------------
                                X             Y             Z
Electronic contribution:     -3.29896       1.09709       0.13712
Nuclear contribution   :      5.80904      -1.54429      -0.31405
                        -----------------------------------------
Total Dipole Moment    :      2.51008      -0.44719      -0.17693
                        -----------------------------------------
Magnitude (a.u.)       :      2.55573
Magnitude (Debye)      :      6.49616

VIBRATIONAL FREQUENCIES
-----------------------

Scaling factor for frequencies =  1.000000000  (already applied!)

   0:         0.00 cm**-1
   1:         0.00 cm**-1
   2:         0.00 cm**-1
   3:         0.00 cm**-1
   4:         0.00 cm**-1
   5:         0.00 cm**-1
   6:        28.43 cm**-1
   7:        38.05 cm**-1
   8:        92.57 cm**-1
   9:       125.25 cm**-1
  10:       132.50 cm**-1
  11:       185.35 cm**-1
  12:       195.96 cm**-1
  13:       201.01 cm**-1
  14:       207.18 cm**-1
  15:       210.74 cm**-1
  16:       229.42 cm**-1
  17:       238.37 cm**-1
  18:       247.93 cm**-1
  19:       259.83 cm**-1
  20:       312.01 cm**-1
  21:       321.90 cm**-1
  22:       331.43 cm**-1
  23:       345.50 cm**-1
  24:       356.93 cm**-1
  25:       376.03 cm**-1
  26:       393.41 cm**-1
  27:       414.09 cm**-1
  28:       424.78 cm**-1
  29:       425.01 cm**-1
  30:       458.14 cm**-1
  31:       515.35 cm**-1
  32:       610.42 cm**-1
  33:       648.51 cm**-1
  34:       665.11 cm**-1
  35:       679.27 cm**-1
  36:       694.11 cm**-1
  37:       699.95 cm**-1
  38:       710.01 cm**-1
  39:       712.72 cm**-1
  40:       715.73 cm**-1
  41:       726.00 cm**-1
  42:       736.00 cm**-1
  43:       747.41 cm**-1
  44:       748.32 cm**-1
  45:       763.43 cm**-1
  46:       773.50 cm**-1
  47:       783.58 cm**-1
  48:       799.62 cm**-1
  49:       806.97 cm**-1
  50:       819.13 cm**-1
  51:       824.50 cm**-1
  52:       830.87 cm**-1
  53:       833.46 cm**-1
  54:       836.03 cm**-1
  55:       849.96 cm**-1
  56:       858.98 cm**-1
  57:       867.67 cm**-1
  58:       881.85 cm**-1
  59:       885.59 cm**-1
  60:       899.71 cm**-1
  61:       969.70 cm**-1
  62:       995.00 cm**-1
  63:      1014.72 cm**-1
  64:      1022.09 cm**-1
  65:      1033.79 cm**-1
  66:      1042.29 cm**-1
  67:      1058.20 cm**-1
  68:      1064.51 cm**-1
  69:      1067.44 cm**-1
  70:      1072.68 cm**-1
  71:      1080.24 cm**-1
  72:      1101.08 cm**-1
  73:      1165.87 cm**-1
  74:      1172.99 cm**-1
  75:      1188.93 cm**-1
  76:      1199.50 cm**-1
  77:      1230.88 cm**-1
  78:      1243.45 cm**-1
  79:      1287.24 cm**-1
  80:      1328.39 cm**-1
  81:      1344.44 cm**-1
  82:      1357.64 cm**-1
  83:      1373.51 cm**-1
  84:      1382.61 cm**-1
  85:      1387.30 cm**-1
  86:      1410.32 cm**-1
  87:      1419.88 cm**-1
  88:      1422.82 cm**-1
  89:      1471.02 cm**-1
  90:      1490.30 cm**-1
  91:      1530.68 cm**-1
  92:      1555.10 cm**-1
  93:      1585.80 cm**-1
  94:      1595.58 cm**-1
  95:      1604.69 cm**-1
  96:      1625.69 cm**-1
  97:      1642.19 cm**-1
  98:      1650.88 cm**-1
  99:      2532.97 cm**-1
 100:      3140.57 cm**-1
 101:      3158.29 cm**-1
 102:      3197.46 cm**-1
 103:      3198.72 cm**-1
 104:      3200.19 cm**-1
 105:      3220.88 cm**-1
 106:      3223.10 cm**-1
 107:      3225.18 cm**-1
 108:      3244.60 cm**-1
 109:      3246.38 cm**-1
 110:      3248.39 cm**-1

IR SPECTRUM
-----------

 Mode   freq       eps      Int      T**2         TX        TY        TZ
       cm**-1   L/(mol*cm) km/mol    a.u.
----------------------------------------------------------------------------
  6:     28.43   0.000264    1.33  0.002895  ( 0.030198 -0.006080  0.044118)
  7:     38.05   0.000121    0.61  0.000990  ( 0.002838 -0.000047 -0.031329)
  8:     92.57   0.000095    0.48  0.000320  (-0.003098  0.005989 -0.016570)
  9:    125.25   0.000330    1.67  0.000823  (-0.016018  0.014493 -0.018887)
 10:    132.50   0.000009    0.05  0.000022  (-0.002618  0.001912 -0.003395)
 11:    185.35   0.000133    0.67  0.000224  ( 0.009632  0.011339 -0.001489)
 12:    195.96   0.002747   13.88  0.004374  ( 0.059314  0.028924  0.004367)
 13:    201.01   0.000843    4.26  0.001309  (-0.027619 -0.022545 -0.006169)
 14:    207.18   0.001089    5.50  0.001640  (-0.004559  0.035165 -0.019570)
 15:    210.74   0.001311    6.62  0.001941  ( 0.038143  0.002935 -0.021844)
 16:    229.42   0.001046    5.28  0.001422  ( 0.016266 -0.005469 -0.033584)
 17:    238.37   0.000876    4.43  0.001146  ( 0.032336  0.004912 -0.008754)
 18:    247.93   0.001512    7.64  0.001903  (-0.039260  0.003286 -0.018730)
 19:    259.83   0.000404    2.04  0.000485  ( 0.015114 -0.012301  0.010243)
 20:    312.01   0.001400    7.07  0.001400  (-0.016295  0.000402 -0.033680)
 21:    321.90   0.001143    5.78  0.001108  (-0.028268 -0.002924 -0.017334)
 22:    331.43   0.003949   19.96  0.003718  ( 0.060509 -0.007477 -0.000926)
 23:    345.50   0.000362    1.83  0.000327  ( 0.010068 -0.004795  0.014233)
 24:    356.93   0.001500    7.58  0.001312  (-0.035179 -0.002677  0.008181)
 25:    376.03   0.002123   10.73  0.001762  ( 0.035479 -0.022330  0.002104)
 26:    393.41   0.003178   16.06  0.002521  ( 0.037313  0.033593 -0.000642)
 27:    414.09   0.000171    0.86  0.000129  ( 0.007872 -0.005502 -0.006062)
 28:    424.78   0.000859    4.34  0.000631  ( 0.024721 -0.003360 -0.002980)
 29:    425.01   0.000425    2.15  0.000312  (-0.007250 -0.016082 -0.000780)
 30:    458.14   0.002495   12.61  0.001699  ( 0.041038 -0.003393  0.001926)
 31:    515.35   0.004653   23.51  0.002818  (-0.051746 -0.004253 -0.011036)
 32:    610.42   0.000920    4.65  0.000470  ( 0.020469 -0.003233 -0.006405)
 33:    648.51   0.000267    1.35  0.000128  (-0.010593 -0.002474 -0.003148)
 34:    665.11   0.001964    9.92  0.000921  (-0.015989 -0.023187  0.011318)
 35:    679.27   0.000171    0.86  0.000078  ( 0.001609  0.006585  0.005696)
 36:    694.11   0.003482   17.60  0.001566  (-0.001139 -0.007400 -0.038852)
 37:    699.95   0.004108   20.76  0.001831  ( 0.011909  0.016407 -0.037686)
 38:    710.01   0.000271    1.37  0.000119  ( 0.006901 -0.008330  0.001475)
 39:    712.72   0.002710   13.69  0.001186  (-0.010276 -0.001322 -0.032849)
 40:    715.73   0.001814    9.17  0.000791  (-0.001435 -0.024447 -0.013827)
 41:    726.00   0.002836   14.33  0.001219  ( 0.017991 -0.020852  0.021459)
 42:    736.00   0.004801   24.26  0.002036  (-0.042860 -0.008883  0.010943)
 43:    747.41   0.003831   19.36  0.001599  (-0.015442 -0.036869 -0.001281)
 44:    748.32   0.001649    8.33  0.000688  ( 0.024419 -0.008975  0.003269)
 45:    763.43   0.002371   11.98  0.000969  ( 0.003762  0.001510 -0.030864)
 46:    773.50   0.000483    2.44  0.000195  ( 0.011610  0.002480  0.007355)
 47:    783.58   0.000446    2.26  0.000178  ( 0.003864  0.009919  0.008025)
 48:    799.62   0.000028    0.14  0.000011  ( 0.000868  0.003022 -0.001043)
 49:    806.97   0.000258    1.30  0.000100  ( 0.007855 -0.004294  0.004440)
 50:    819.13   0.000900    4.55  0.000343  ( 0.004077  0.013474  0.012025)
 51:    824.50   0.000651    3.29  0.000246  ( 0.003103 -0.007473  0.013449)
 52:    830.87   0.000481    2.43  0.000181  ( 0.000663  0.005978  0.012022)
 53:    833.46   0.000149    0.75  0.000056  ( 0.005834 -0.002598  0.003855)
 54:    836.03   0.007640   38.61  0.002852  ( 0.014881  0.019974 -0.047238)
 55:    849.96   0.025781  130.29  0.009466  (-0.023883  0.002284 -0.094287)
 56:    858.98   0.002148   10.86  0.000781  ( 0.027516 -0.004791 -0.000644)
 57:    867.67   0.000750    3.79  0.000270  (-0.014580 -0.007495  0.001008)
 58:    881.85   0.001843    9.31  0.000652  ( 0.019357 -0.014865 -0.007514)
 59:    885.59   0.001073    5.42  0.000378  ( 0.012154  0.014795 -0.003373)
 60:    899.71   0.001052    5.31  0.000365  (-0.007280  0.017444 -0.002730)
 61:    969.70   0.003011   15.22  0.000969  ( 0.004277 -0.029535 -0.008861)
 62:    995.00   0.006899   34.87  0.002164  (-0.018214 -0.042327  0.006365)
 63:   1014.72   0.002333   11.79  0.000717  ( 0.002967  0.026569 -0.001661)
 64:   1022.09   0.007483   37.82  0.002285  ( 0.045535  0.014418  0.001841)
 65:   1033.79   0.005201   26.28  0.001570  ( 0.028578 -0.026509 -0.007114)
 66:   1042.29   0.000074    0.37  0.000022  (-0.003786  0.000011  0.002791)
 67:   1058.20   0.001181    5.97  0.000348  (-0.012158 -0.011932 -0.007627)
 68:   1064.51   0.010237   51.73  0.003001  (-0.035591 -0.041639 -0.000669)
 69:   1067.44   0.010195   51.52  0.002981  (-0.039025  0.038177  0.000439)
 70:   1072.68   0.001861    9.41  0.000541  (-0.022160 -0.005387  0.004619)
 71:   1080.24   0.001931    9.76  0.000558  ( 0.003414  0.023326 -0.001451)
 72:   1101.08   0.001568    7.93  0.000445  (-0.019889 -0.004902 -0.004993)
 73:   1165.87   0.001236    6.24  0.000331  (-0.015201  0.007802 -0.006229)
 74:   1172.99   0.001118    5.65  0.000297  ( 0.011376  0.012911 -0.001097)
 75:   1188.93   0.000196    0.99  0.000051  (-0.005279  0.003877  0.002923)
 76:   1199.50   0.000719    3.63  0.000187  ( 0.013585  0.000892 -0.001280)
 77:   1230.88   0.004726   23.89  0.001198  ( 0.031432 -0.014483  0.000743)
 78:   1243.45   0.000462    2.34  0.000116  ( 0.009271  0.005204  0.001726)
 79:   1287.24   0.012301   62.16  0.002982  ( 0.054271 -0.003246 -0.005124)
 80:   1328.39   0.008637   43.65  0.002029  (-0.043620 -0.008594  0.007237)
 81:   1344.44   0.014378   72.66  0.003337  (-0.057767 -0.000074  0.000595)
 82:   1357.64   0.000768    3.88  0.000176  ( 0.004413 -0.012517  0.000543)
 83:   1373.51   0.003044   15.39  0.000692  (-0.011187 -0.023802  0.000209)
 84:   1382.61   0.003478   17.58  0.000785  (-0.023181 -0.015121  0.004371)
 85:   1387.30   0.003030   15.31  0.000681  (-0.024536 -0.007959  0.004011)
 86:   1410.32   0.003561   18.00  0.000788  (-0.027877  0.001530  0.002908)
 87:   1419.88   0.001437    7.26  0.000316  (-0.006651 -0.016441 -0.001153)
 88:   1422.82   0.008778   44.36  0.001925  ( 0.040211 -0.017135  0.003832)
 89:   1471.02   0.012029   60.79  0.002552  (-0.049467 -0.009710  0.003260)
 90:   1490.30   0.016033   81.02  0.003357  ( 0.055174  0.017660 -0.001105)
 91:   1530.68   0.005988   30.26  0.001221  (-0.029334  0.018301 -0.005029)
 92:   1555.10   0.003521   17.79  0.000707  (-0.024237 -0.008966 -0.006222)
 93:   1585.80   0.001730    8.74  0.000340  (-0.016196  0.002178 -0.008562)
 94:   1595.58   0.018079   91.36  0.003536  (-0.022403  0.055081  0.000044)
 95:   1604.69   0.009514   48.08  0.001850  ( 0.042218  0.007391 -0.003637)
 96:   1625.69   0.001335    6.74  0.000256  (-0.015327  0.004443 -0.001243)
 97:   1642.19   0.002680   13.54  0.000509  ( 0.021335  0.007245  0.001254)
 98:   1650.88   0.006307   31.87  0.001192  (-0.030520 -0.015234  0.005352)
 99:   2532.97   0.115426  583.31  0.014221  (-0.113717  0.035154  0.007291)
100:   3140.57   0.015648   79.08  0.001555  ( 0.033676  0.019630 -0.005955)
101:   3158.29   0.005845   29.54  0.000578  ( 0.015301 -0.018042  0.004235)
102:   3197.46   0.002609   13.18  0.000255  (-0.009851 -0.012324 -0.002387)
103:   3198.72   0.002452   12.39  0.000239  (-0.012172  0.009334  0.001979)
104:   3200.19   0.003100   15.66  0.000302  (-0.011228 -0.013211  0.001282)
105:   3220.88   0.001786    9.03  0.000173  (-0.010815 -0.007100 -0.002387)
106:   3223.10   0.001878    9.49  0.000182  ( 0.000465  0.013349  0.001854)
107:   3225.18   0.001591    8.04  0.000154  (-0.010596  0.006101  0.002109)
108:   3244.60   0.006864   34.69  0.000660  ( 0.025636 -0.000922  0.001467)
109:   3246.38   0.005754   29.08  0.000553  ( 0.003121  0.023278 -0.001252)
110:   3248.39   0.004775   24.13  0.000459  ( 0.001562 -0.021267 -0.001997)

--------------------------
THERMOCHEMISTRY AT 298.15K
--------------------------

Temperature         ... 298.15 K
Pressure            ... 1.00 atm
Total Mass          ... 369.49 AMU

Throughout the following assumptions are being made:
  (1) The electronic state is orbitally nondegenerate
  (2) There are no thermally accessible electronically excited states
  (3) Hindered rotations indicated by low frequency modes are not
      treated as such but are treated as vibrations and this may
      cause some error
  (4) All equations used are the standard statistical mechanics
      equations for an ideal gas
  (5) All vibrations are strictly harmonic

freq.      28.43  E(vib)   ...       0.55
freq.      38.05  E(vib)   ...       0.54
freq.      92.57  E(vib)   ...       0.47
freq.     125.25  E(vib)   ...       0.43
freq.     132.50  E(vib)   ...       0.42
freq.     185.35  E(vib)   ...       0.37
freq.     195.96  E(vib)   ...       0.36
freq.     201.01  E(vib)   ...       0.35
freq.     207.18  E(vib)   ...       0.34
freq.     210.74  E(vib)   ...       0.34
freq.     229.42  E(vib)   ...       0.32
freq.     238.37  E(vib)   ...       0.32
freq.     247.93  E(vib)   ...       0.31
freq.     259.83  E(vib)   ...       0.30
freq.     312.01  E(vib)   ...       0.25
freq.     321.90  E(vib)   ...       0.25
freq.     331.43  E(vib)   ...       0.24
freq.     345.50  E(vib)   ...       0.23
freq.     356.93  E(vib)   ...       0.22
freq.     376.03  E(vib)   ...       0.21
freq.     393.41  E(vib)   ...       0.20
freq.     414.09  E(vib)   ...       0.19
freq.     424.78  E(vib)   ...       0.18
freq.     425.01  E(vib)   ...       0.18
freq.     458.14  E(vib)   ...       0.16
freq.     515.35  E(vib)   ...       0.13
freq.     610.42  E(vib)   ...       0.10
freq.     648.51  E(vib)   ...       0.08
freq.     665.11  E(vib)   ...       0.08
freq.     679.27  E(vib)   ...       0.08
freq.     694.11  E(vib)   ...       0.07
freq.     699.95  E(vib)   ...       0.07
freq.     710.01  E(vib)   ...       0.07
freq.     712.72  E(vib)   ...       0.07
freq.     715.73  E(vib)   ...       0.07
freq.     726.00  E(vib)   ...       0.06
freq.     736.00  E(vib)   ...       0.06
freq.     747.41  E(vib)   ...       0.06
freq.     748.32  E(vib)   ...       0.06
freq.     763.43  E(vib)   ...       0.06
freq.     773.50  E(vib)   ...       0.05
freq.     783.58  E(vib)   ...       0.05
freq.     799.62  E(vib)   ...       0.05
freq.     806.97  E(vib)   ...       0.05
freq.     819.13  E(vib)   ...       0.05
freq.     824.50  E(vib)   ...       0.04
freq.     830.87  E(vib)   ...       0.04
freq.     833.46  E(vib)   ...       0.04
freq.     836.03  E(vib)   ...       0.04
freq.     849.96  E(vib)   ...       0.04
freq.     858.98  E(vib)   ...       0.04
freq.     867.67  E(vib)   ...       0.04
freq.     881.85  E(vib)   ...       0.04
freq.     885.59  E(vib)   ...       0.04
freq.     899.71  E(vib)   ...       0.03
freq.     969.70  E(vib)   ...       0.03
freq.     995.00  E(vib)   ...       0.02
freq.    1014.72  E(vib)   ...       0.02
freq.    1022.09  E(vib)   ...       0.02
freq.    1033.79  E(vib)   ...       0.02
freq.    1042.29  E(vib)   ...       0.02
freq.    1058.20  E(vib)   ...       0.02
freq.    1064.51  E(vib)   ...       0.02
freq.    1067.44  E(vib)   ...       0.02
freq.    1072.68  E(vib)   ...       0.02
freq.    1080.24  E(vib)   ...       0.02
freq.    1101.08  E(vib)   ...       0.02
freq.    1165.87  E(vib)   ...       0.01
freq.    1172.99  E(vib)   ...       0.01
freq.    1188.93  E(vib)   ...       0.01
freq.    1199.50  E(vib)   ...       0.01
freq.    1230.88  E(vib)   ...       0.01
freq.    1243.45  E(vib)   ...       0.01
freq.    1287.24  E(vib)   ...       0.01
freq.    1328.39  E(vib)   ...       0.01
freq.    1344.44  E(vib)   ...       0.01
freq.    1357.64  E(vib)   ...       0.01
freq.    1373.51  E(vib)   ...       0.01
freq.    1382.61  E(vib)   ...       0.01
freq.    1387.30  E(vib)   ...       0.00
freq.    1410.32  E(vib)   ...       0.00
freq.    1419.88  E(vib)   ...       0.00
freq.    1422.82  E(vib)   ...       0.00
freq.    1471.02  E(vib)   ...       0.00
freq.    1490.30  E(vib)   ...       0.00
freq.    1530.68  E(vib)   ...       0.00
freq.    1555.10  E(vib)   ...       0.00
freq.    1585.80  E(vib)   ...       0.00
freq.    1595.58  E(vib)   ...       0.00
freq.    1604.69  E(vib)   ...       0.00
freq.    1625.69  E(vib)   ...       0.00
freq.    1642.19  E(vib)   ...       0.00
freq.    1650.88  E(vib)   ...       0.00
freq.    2532.97  E(vib)   ...       0.00
freq.    3140.57  E(vib)   ...       0.00
freq.    3158.29  E(vib)   ...       0.00
freq.    3197.46  E(vib)   ...       0.00
freq.    3198.72  E(vib)   ...       0.00
freq.    3200.19  E(vib)   ...       0.00
freq.    3220.88  E(vib)   ...       0.00
freq.    3223.10  E(vib)   ...       0.00
freq.    3225.18  E(vib)   ...       0.00
freq.    3244.60  E(vib)   ...       0.00
freq.    3246.38  E(vib)   ...       0.00
freq.    3248.39  E(vib)   ...       0.00

------------
INNER ENERGY
------------

The inner energy is: U= E(el) + E(ZPE) + E(vib) + E(rot) + E(trans)
    E(el)   - is the total energy from the electronic structure calculation
              = E(kin-el) + E(nuc-el) + E(el-el) + E(nuc-nuc)
    E(ZPE)  - the the zero temperature vibrational energy from the frequency calculation
    E(vib)  - the the finite temperature correction to E(ZPE) due to population
              of excited vibrational states
    E(rot)  - is the rotational thermal energy
    E(trans)- is the translational thermal energy

Summary of contributions to the inner energy U:
Electronic energy                ...  -2601.42127053 Eh
Zero point energy                ...      0.26541049 Eh     166.55 kcal/mol
Thermal vibrational correction   ...      0.01573078 Eh       9.87 kcal/mol
Thermal rotational correction    ...      0.00141627 Eh       0.89 kcal/mol
Thermal translational correction ...      0.00141627 Eh       0.89 kcal/mol
-----------------------------------------------------------------------
Total thermal energy                  -2601.13729672 Eh

Summary of corrections to the electronic energy:
(perhaps to be used in another calculation)
Total thermal correction                  0.01856332 Eh      11.65 kcal/mol
Non-thermal (ZPE) correction              0.26541049 Eh     166.55 kcal/mol
-----------------------------------------------------------------------
Total correction                          0.28397381 Eh     178.20 kcal/mol

--------
ENTHALPY
--------

The enthalpy is H = U + kB*T
                kB is Boltzmann's constant
Total free energy                 ...  -2601.13729672 Eh

Rotational constants in cm-1:     0.009143     0.008861     0.004551

                             ****ORCA TERMINATED NORMALLY****
TOTAL RUN TIME: 0 days 8 hours 40 minutes 30 seconds 946 msec
